# vtk DataFile Version 3.0
d-2__ created by libgimli-v1.2.2
ASCII
DATASET UNSTRUCTURED_GRID
POINTS 570 double
14.5	0	0
14.25	0	0
14.386963504964	-0.201738469428	0
22.399299936458	-0.310870122736	0
22.129824335287	-0.229914148082	0
22.126320781198	-0.518791771445	0
8.472303742627	-0.591754876635	0
8.780507935475	-0.76092407121	0
8.82173151259	-0.349253271447	0
18.663262297679	-0.667179415955	0
18.934786529245	-0.453308328646	0
18.636898038907	-0.29588182328	0
4.016904362632	-0.85330676142	0
4.076038737616	-0.331410355179	0
3.713721571226	-0.470767763626	0
1.89953779852	-0.269343012166	0
1.633800503821	-0.203067612233	0
1.644492760828	-0.441295523531	0
4.368408037607	-0.250833874131	0
4.337474161742	-0.544420985055	0
4.67745607622	-0.378433532554	0
1.406172533733	-0.772361039307	0
1.913288206557	-1.218576310882	0
1.90687689783	-0.651895683444	0
2.5	0	0
2.25	0	0
2.347047126858	-0.185539804102	0
1.374000926997	-0.300418771701	0
1.25	0	0
1.114902662369	-0.201591505098	0
1.067401015567	-0.470108640981	0
5.75	0	0
5.699780065382	-0.324747799653	0
5.924584257371	-0.172748359932	0
0.883560935405	-0.231136840652	0
1	0	0
9	0	0
9.117836368049	-0.253904480787	0
2.625577516194	-0.346770599322	0
17.859079774019	-0.943547525024	0
17.535029634209	-1.703182852412	0
18.338018094476	-1.366069799339	0
19.932263871771	-0.826489183604	0
19.881635677668	-0.346204516721	0
19.622287080959	-0.573770479943	0
1.5	0	0
1.75	0	0
23.25	0	0
23	0	0
23.109690227386	-0.220340974338	0
2.75	0	0
2.142562771237	-0.172460438312	0
2	0	0
23.332392704446	-0.202507275941	0
23.5	0	0
19	0	0
18.75	0	0
18.888143078348	-0.195773419804	0
2.90152418742	-0.185685383897	0
7.612175045312	-0.180627982114	0
7.527150943175	-0.401430797998	0
7.881917737402	-0.30462800112	0
25.630635194756	-0.512020961038	0
25.243766894324	-0.80097755811	0
25.758031115142	-0.952821630144	0
3	0	0
28.84859809239	-0.201276387394	0
29	0	0
28.75	0	0
4	0	0
3.835807353334	-0.199536243303	0
3.106904732949	-0.178783649348	0
29.25	0	0
29.092446172194	-0.305987136665	0
13.5	0	0
13.667851890428	-0.185102765244	0
13.75	0	0
3.75	0	0
14.407363653886	-0.441423674912	0
14.125469935998	-0.279652141152	0
4.25	0	0
5.061980176718	-0.407989246181	0
5.335512032876	-0.269401530321	0
5.113979852892	-0.173834924157	0
11.882046000841	-0.812345557852	0
12.478640631525	-1.146569360669	0
12.244190771573	-0.565936619511	0
3.633270844505	-0.195395238442	0
14	0	0
18.378272976509	-0.514977451159	0
5.5	0	0
9.619519097921	-1.16461851757	0
10.030576753886	-1.587265312651	0
9.961661342999	-1.070235523667	0
5.25	0	0
5	0	0
13.157975569138	-0.830425793913	0
13.83833027638	-1.238601004239	0
13.671302359608	-0.710707966059	0
11.325917093147	-0.8366783502	0
11.612143285947	-0.506264798476	0
6	0	0
7	0	0
6.83842404292	-0.188923754932	0
7.11236984822	-0.391746146843	0
6.631875629497	-0.169178192832	0
6.75	0	0
3.21002197083	-0.595267231049	0
3.445510026908	-0.608065324465	0
3.362318141622	-0.306501255187	0
6.120159502895	-0.164221934939	0
4.538525595924	-0.906226152762	0
13.233775457127	-1.737244787017	0
4.5	0	0
16.138065841822	-0.472802517973	0
16.126746690205	-0.221608117926	0
15.859319180798	-0.326402762318	0
26.080401003391	-0.227842452866	0
26.25	0	0
26	0	0
3.019224421113	-0.401469974918	0
8.234901607028	-0.35771789179	0
8.518285578354	-0.242327591839	0
8.328777073389	-0.153008859619	0
7.25	0	0
7.400656881666	-0.195280611572	0
7.5	0	0
5.385509485898	-0.709154879541	0
5.948697127931	-0.745234910621	0
8.75	0	0
8.5	0	0
8.25	0	0
2.214249105773	-0.404278959534	0
2.896561357202	-0.792481120253	0
9.25	0	0
4.920911116561	-0.192028847294	0
9.651670336652	-0.200847798694	0
9.849824537955	-0.19917205686	0
9.75	0	0
10.095049354068	-0.315754204277	0
10	0	0
3.25	0	0
6.738406513564	-0.710129601907	0
7.121614580011	-0.943026074581	0
11.345829942703	-0.314788260019	0
11.25	0	0
11.104427225455	-0.188863495516	0
6.052412255932	-0.372556729023	0
6.373371846535	-0.274163514827	0
10.25	0	0
10.380281579003	-0.241092027437	0
10.5	0	0
10.75	0	0
10.909079077441	-0.189427130481	0
11	0	0
6.25	0	0
6.5	0	0
4.75	0	0
3.5	0	0
10.672815698565	-0.318467932684	0
10.772487906066	-0.787092734739	0
11.020900486567	-0.439266778492	0
8	0	0
7.75	0	0
11.5	0	0
11.619450354737	-0.231443672836	0
11.75	0	0
8.139317726831	-0.163309591658	0
12.25	0	0
12.158949464947	-0.235415698299	0
12.412455385193	-0.275030800337	0
12.929165084344	-0.221336108042	0
12.686337592177	-0.258437422252	0
12.900449535554	-0.462768612232	0
12.5	0	0
9.405755833308	-0.325979504745	0
9.111697192308	-0.594170467817	0
9.457257345083	-0.753685223931	0
18.101369157139	-0.618560521812	0
18.336839281097	-0.861122419318	0
10.385948631267	-0.570640149046	0
9.5	0	0
13.411260455969	-0.342646276848	0
12.643108055516	-0.590179775368	0
13.137744715761	-0.195204172124	0
13	0	0
21.25	0	0
21.358341816502	-0.326561417551	0
21.5	0	0
13.816492716597	-0.40394453634	0
20.25	0	0
20.423452336785	-0.313445603959	0
20.5	0	0
17.789350393153	-0.390447709085	0
17.987794057246	-0.401472255242	0
17.881276545163	-0.206424156589	0
19.564465692234	-0.270867872644	0
19.290725118801	-0.49926248604	0
16.392319441256	-0.29915360323	0
19.443730892406	-0.923508713428	0
20.457987075478	-0.803203365193	0
20.167450719332	-0.505159975143	0
0.103762538371	-0.253013629949	0
0.267057015134	-0.483604909932	0
0.374713194419	-0.2320817565	0
13.25	0	0
17.415572543912	-0.230682214253	0
17.5	0	0
17.25	0	0
18.108153655084	-0.208141099276	0
18.25	0	0
18	0	0
15.75	0	0
15.544586046819	-0.246453491997	0
15.122708481244	-0.193620038745	0
15.25	0	0
15	0	0
19.75	0	0
24.149237782749	-0.319013340846	0
23.842766599446	-0.577371105011	0
24.183995039967	-0.73159476451	0
13.871646321742	-0.17394291424	0
23.862588150518	-0.245417872715	0
16.84024277193	-0.203626765466	0
16.704049384397	-0.435508179396	0
17.112673188265	-0.38804641709	0
24.75	0	0
24.832880292394	-0.290571430318	0
25	0	0
16.40158555625	-0.755912194683	0
16.850299990829	-0.757941865332	0
17.75	0	0
23.567455674596	-0.325197491724	0
16.25	0	0
16	0	0
22.645812614293	-0.197864648876	0
22.75	0	0
22.5	0	0
16.75	0	0
17	0	0
24	0	0
26.914424714815	-0.337869958787	0
26.621963281699	-0.624626679172	0
26.977877660759	-0.778408201088	0
26.622424322919	-0.264588309935	0
19.34462271879	-0.199329831305	0
19.25	0	0
19.118057075065	-0.225686869553	0
19.5	0	0
26.75	0	0
27	0	0
27.5	0	0
27.604422363523	-0.298869962794	0
27.75	0	0
17.650384190064	-0.227839036584	0
18.343198956448	-0.236734208617	0
18.5	0	0
24.25	0	0
20.143897114391	-0.233773711865	0
25.5	0	0
25.25	0	0
25.344389320279	-0.31693710653	0
21.059546193318	-0.24845941382	0
20	0	0
25.842927934822	-0.248287716678	0
25.75	0	0
25.613904645132	-0.216025146631	0
21	0	0
11.763551406169	-1.481607093928	0
30.981104050195	-0.5526690913	0
30.873880294509	-0.217692518774	0
30.706626759758	-0.34945139905	0
20.75	0	0
20.85240828135	-0.178025243856	0
23.75	0	0
20.66289882074	-0.189089155251	0
30.204950808504	-0.791758966623	0
30.715535843381	-1.149995259266	0
30.543724897762	-0.572259098027	0
30	0	0
30.180216671806	-0.343473673313	0
30.25	0	0
23.229584388362	-0.458653998547	0
29.5	0	0
29.623391954444	-0.322069028408	0
29.75	0	0
21.618913855927	-0.233585823579	0
21.75	0	0
29.348490380579	-0.521100538161	0
29.36294710412	-0.230601226356	0
22	0	0
22.25	0	0
28.25	0	0
28	0	0
28.129259193923	-0.314252106503	0
28.44374413871	-0.484576386004	0
28.100199615755	-0.812038297775	0
28.649230646972	-0.871769248311	0
28.618403654115	-0.227691192115	0
28.5	0	0
28.387848605749	-0.205892081491	0
29.054768525933	-0.708603081552	0
29.344906532636	-0.846887322836	0
26.327430876245	-0.35930637997	0
10.349120516034	-1.04150119828	0
10.894920134778	-1.514321070539	0
24.59640839418	-0.191760546865	0
12.75	0	0
24.5	0	0
13.102881121377	-0.411296235356	0
25.099388239946	-0.214879887129	0
25.97986022697	-0.52841375324	0
24.398993403151	-0.196312410538	0
17.860840746535	-0.577367743328	0
17.566481510048	-0.529340016102	0
26.5	0	0
16.637148248735	-0.188015807345	0
18.183918302467	-0.396443618316	0
27.159348252167	-0.205297590358	0
27.357530053515	-0.198815038154	0
27.25	0	0
15.060354649709	-1.112587998155	0
15.51532665618	-1.043792149387	0
15.178150912169	-0.713100616689	0
10.051363365948	-0.719159376333	0
14.661248691948	-0.27865166374	0
14.75	0	0
27.868836823455	-0.217301839861	0
31	0	0
30.75	0	0
-0.020273477909	-1.415389842481	0
1.054972770973	-1.487485199502	0
0.512583677021	-1.0438154777	0
0.75	0	0
2.361419414365	-0.794513604096	0
29.890297721653	-0.2433406165	0
30.473599299501	-0.238575611274	0
30.5	0	0
30.660802173874	-0.161931182737	0
28.783812899585	-0.467926883932	0
4.937022539393	-0.72440615077	0
6.696914540879	-0.380672503721	0
7.434272221796	-0.695675918868	0
15.339606453815	-0.166204802571	0
15.281953315711	-0.388999642276	0
11.893544445085	-0.335972898148	0
12	0	0
9.753796445798	-0.478866225926	0
7.720012958977	-0.638314519759	0
21.871398197179	-0.313006985103	0
21.615176662754	-0.521922347305	0
21.856785525528	-0.665128848631	0
20.792152536902	-0.448319093295	0
21.109577821412	-0.527879642114	0
21.360297691811	-0.734200004244	0
15.547854961707	-0.580173571081	0
24.496861814148	-0.467031445896	0
25.067351422649	-0.463427753535	0
24.81263825963	-0.684738154192	0
22.865620821195	-0.218348593093	0
23.443705587002	-0.773171720633	0
27.277617447467	-0.489224417775	0
27.863714790534	-0.471681393437	0
26.239117668995	-0.863279739365	0
29.896797054636	-0.547765129844	0
29.612773839625	-0.699757135752	0
29.867172666547	-0.87444432816	0
29.610354212963	-1.521444655905	0
29.59548165142	-1.071765512911	0
29.115129171034	-1.220660174798	0
31.345359428525	-0.458952144926	0
31.144859415042	-0.241304201582	0
15.919565295974	-0.746550096707	0
16.063006820294	-1.289595303187	0
16.5	0	0
14.900855313538	-0.178071167744	0
14.161016743654	-0.72559708689	0
19.011498044983	-0.834202892304	0
16.760433281999	-1.263698818643	0
17.280361389946	-0.931704507314	0
-0.627742252535	-0.296285438777	0
-1	0	0
-1	-0.5	0
0.625738545692	-0.228405936136	0
0.5	0	0
3.313957665883	-0.865581185485	0
3.619156095452	-0.800599314657	0
[...]
CELL_DATA 986
SCALARS 100.00_1.06 double 1
LOOKUP_TABLE default
847.10454297588 438.9618618209 289.19161983655 376.93273214189 437.14195993977 568.15079782719 668.09902241585 156.75651359574 677.85529368312 851.6393792771 553.04703972038 670.62831094627 659.21681623659 674.83475127324 758.18178432304 895.1711286336 71.480992906937 253.69603708228 628.39270369095 765.40472172529 810.1931430776 662.94145930975 707.86351030261 774.60305116944 552.48556624562 735.07811824318 548.9041425472 225.49800448554 711.35261694291 972.98919547076 881.727119407 787.66012609828 698.65191695888 808.56442768458 821.8277222318 682.3705456939 928.46076720702 715.2126576088 229.48842370282 787.69835799907 963.32116294544 381.31359009356 725.64359385799 97.783870211911 811.88894442355 852.60512856911 165.89728112236 295.82141645054 687.58841636129 1109.694877614 732.75861969116 906.17142377578 369.45902617959 713.99931254875 382.76017118643 684.77582218634 86.744965762666 983.32381076031 546.34629758975 903.56093993018 787.43947148892 629.20749790796 537.36988568502 727.15459841814 652.91101170136 616.14041360641 327.29238357766 447.64517417227 617.06204659278 653.05478928056 613.56306059661 687.87325379194 1023.0056817689 678.13734607359 660.47716669759 419.2060933065 601.86309503428 936.64638058243 555.5441586215 641.87244958208 873.25063579255 216.82402178706 617.2264709527 621.72393106573 841.06750701988 660.65656031619 657.23416127356 743.88547107576 637.66156872376 552.82202845992 1210.0866769858 817.25302656413 831.14619214819 706.67959830159 407.72171503569 705.70300845546 460.17648871528 580.12650311512 665.97089913333 685.06495325313 492.42469019672 824.50888975608 547.73977949685 509.15687280046 353.36427652113 266.1000615469 517.94720172417 708.75476191371 351.11904663052 624.26980669827 486.57413700396 679.86424726584 500.48766172602 724.30145091505 440.78720892448 672.26726430106 504.9514977359 850.33329454605 351.96299678586 603.04090200207 209.473739326 759.92276840604 306.22306024217 414.70388422957 499.91866015095 595.71614229594 433.87570741053 378.74435027508 608.5525328114 804.4639049522 516.91463571773 802.63256155899 831.87071068771 597.72054830064 413.92169084666 662.78060933214 651.16280284491 481.68009199615 740.68482227586 259.0345026014 762.04581325068 577.17677492898 1105.3122407552 775.24258003351 781.87032990638 639.44460380314 897.22401378793 347.34680049025 503.06801342543 554.7251270983 547.31336377612 526.63447511626 851.82707814486 570.58683683527 807.3699741552 622.56969297788 706.09715623341 623.00853702023 1083.910244557 811.52284073627 623.81797647057 949.41930815619 584.84496256517 660.39039246213 809.4786826558 611.4831459378 144.22019393632 537.33966432327 923.41508741844 719.15420243333 729.88797869097 747.11339420017 259.95440490147 530.86261319527 622.51467677856 689.04259811892 644.63077331212 650.72337336378 599.28775200349 710.13259807117 554.63142838807 1120.4944245077 730.40697347209 298.35134063985 160.70055140674 581.82045558905 940.72337004167 548.39043119894 611.02110724722 335.17283740899 546.63851047232 135.90148126151 687.58417377357 193.61700697562 785.59976294557 688.75272405783 213.27470801949 558.54318639237 946.25250092287 497.08268656543 797.12224058705 662.14785491086 472.02363445437 854.3456644226 658.41117335808 269.14789789947 703.93081678465 548.79400964752 657.94132090328 875.2133883063 614.3575959404 496.70130485988 1013.8504514395 527.98442812075 889.79447740524 1005.583648402 164.78385758488 874.10004533602 157.30747218374 786.24039329317 537.99338223489 984.5062924393 608.57231166775 770.10540924974 789.91979341296 665.05806698516 851.33468783586 852.67391318097 438.29461253439 655.64385308117 581.93513919718 97.012711061709 722.33581874629 699.2163589203 528.96845233589 843.19944098013 578.19005523743 297.25657784073 744.77995072294 463.60132917565 547.69524400943 499.10844832847 718.15883177619 806.94923441908 598.33346645735 1006.5427041235 794.80743261211 585.44304958101 672.49375901947 563.87493685552 682.8285550516 659.00111789133 354.18858109734 733.32586733532 533.37757802148 717.81601182544 660.76605420091 630.06695291648 645.15060061871 336.14266510603 705.61956545746 801.80064288161 1082.7278363585 812.05883932255 586.35745489458 624.07523873398 323.30690286908 719.8597772536 1022.3688152519 731.50513923527 517.72628075021 424.10194181593 665.53204730003 672.89865999006 696.66333996495 583.96701350247 753.22682673867 514.60193394268 508.81619653664 488.43030864716 304.28677732757 482.08231464237 538.4271607067 599.06663481593 231.88075547993 639.17491754914 534.05896072945 653.98141615981 554.10853341388 557.18852388226 367.9700917629 308.32969898317 280.63279910752 708.02125987251 440.50342726726 837.52505061724 436.51485683296 655.55843768467 881.33163510899 569.19055006494 257.37124256418 738.39297103438 621.76480089187 444.49155606477 421.29587743668 282.85176190367 479.11054462822 730.12426830174 634.66872549441 828.9624639526 597.1647751735 875.42220089041 788.4168377978 735.89609410035 584.16073175396 418.07173329907 800.24050129457 378.04227474671 681.53510419586 860.33799700394 644.82747659952 901.16579363399 871.65928773508 735.67509800822 582.43957966958 672.1565658009 834.82825883036 366.99687756247 306.3287697858 116.87079292717 453.66103570415 429.71265950145 576.68246653685 675.79779540511 557.44555869639 698.18344661524 565.69014310481 1155.7032680576 503.5908300172 707.23236574545 135.82724023142 246.26437088622 974.95018575655 793.09134525819 654.8604344337 497.7168524312 616.91621813974 545.61102324712 517.52606626206 506.50793576667 582.02698378573 172.60129866339 468.57087336475 164.02311305573 584.90522306698 146.2257878357 168.70990688748 355.14643715631 252.87876111185 580.71022750446 782.5075695483 228.64652676142 320.03588248652 515.50841960837 1041.431391869 439.68865347175 269.08919123482 159.23657523146 180.87267447835 591.59207072906 679.15536043256 835.88526104568 414.6484712768 256.11764863281 472.3581979109 602.54980733801 377.14777222096 661.67915392045 411.98639320871 253.61745219165 96.24336955636 478.46646035218 435.98626618585 683.7389877012 631.25136354082 495.8366440264 466.86641375655 560.21269761534 221.20302172941 594.52481528372 374.25688404852 359.74022298713 249.46802932068 534.08987700229 375.40371286048 631.42103680463 375.16062427718 294.21116589582 648.38102516422 530.86872373823 802.73712943876 697.24499959446 471.06685441561 383.74860386571 263.47000531894 837.42507618178 268.78980584769 475.4593072959 457.92636610997 686.345347972 623.44339765575 402.03699909774 575.99329358837 403.71238011857 619.52431658173 860.86928689227 439.72268043111 373.67592821623 252.00287303217 260.07142385937 234.16426546939 741.16485045687 514.63110118749 453.75279772121 464.89516141829 764.46553317107 378.94780518454 344.92178176679 477.74757142972 306.70308895662 400.67329680091 813.21633610219 604.87313911673 608.8165186821 671.52810363079 647.90502975388 172.21911954606 517.79019099216 124.98415292754 545.70679383211 181.39088507832 442.12839019765 1040.5190078281 749.56830364215 154.12171858483 513.75274039894 80.311121190586 521.07802426267 261.86032401576 356.05358218504 911.30484343503 669.60055141177 670.76548214448 359.997036211 104.28127483558 60.45550028884 281.33157486914 635.79955215896 407.57266487265 537.63774908089 292.25042826981 534.84733867391 389.49542215228 453.09437407965 319.88415565853 157.45921944923 179.4907538979 636.40841258524 266.56163011683 140.11925452762 292.56196647837 737.62731534137 293.39276542297 157.31231113628 98.717523040164 508.08915457755 285.95775719046 681.85870147506 364.93955747753 148.08028216899 356.20088011887 138.06609976833 167.66266447533 529.63709648013 287.61345693321 362.08032841206 388.26919095746 521.74625666405 200.96420643928 504.7592636452 81.733484226299 283.8045475505 1223.1097953883 549.12447379666 376.74512071308 176.30645320775 67.69786731767 48.962755443303 253.64790280236 539.12506487509 254.58084896933 201.3064449721 136.75308086104 169.70049021241 286.46329091402 518.24521895678 91.667991877689 457.04024459162 528.06735700156 55.04116114557 304.94134128201 631.83626636071 645.24781660619 170.68643994789 387.39001928592 673.57693160811 262.57767913537 208.43242872975 130.4158998635 628.43118531985 537.13138945216 164.8100981068 475.86125572656 600.7431790691 273.8726046293 194.95476257098 130.62160375514 655.92018826016 522.40350268352 346.67976878105 402.81370453409 560.11407481381 450.70881487279 579.87947787368 382.30297832622 502.07026554113 771.12602193253 614.25658918198 76.91467484596 43.852015731749 586.31043345451 116.02556991728 857.18475580695 318.48564748617 97.994737380234 414.06260808176 45.747710682339 193.71397004118 43.073595057842 56.930520856273 411.96627574471 109.24315121576 366.23572325234 146.04246811244 539.8469234447 418.1968081376 172.73283212307 460.01833870088 106.9569999865 155.11053037733 416.2687535846 268.82830235262 429.66856680929 165.56741592511 196.15641128002 363.29999147254 110.48579279547 69.775080830648 480.00226229997 300.43552009279 765.49099868816 230.18506961608 737.06940662028 186.85458318617 384.14447667802 499.59506979759 132.65259343852 44.765658406421 348.22956395946 175.62838510516 174.57373056208 175.73943056027 651.52185639705 366.32158911439 96.404691013943 386.5843739728 607.84913610075 330.16734439557 415.86153712268 295.29291969191 482.5338034167 333.77058099245 44.874642531436 276.98246338634 55.515065066075 230.17170281183 358.53841856485 363.35191411928 139.49057797309 259.00594774387 403.05928532024 321.46209692301 281.23337763934 233.05297318442 115.71166238775 63.240791773252 131.73434506605 213.7725364809 370.8072211067 183.82811034833 117.07280057653 252.98898128724 118.79144165367 801.14255042019 94.966532355203 530.91470256024 486.67996282731 44.778822412764 349.20760890463 380.32303955248 359.80914685909 318.39660787531 207.89992006149 172.57583505653 165.25458846777 184.01816943851 343.05274996354 318.15290093296 52.27306928787 108.76086207251 77.542877089325 112.95087962594 78.843867534935 351.10817234553 157.85080173259 278.99728036399 63.846188545579 80.510621107693 111.53637379338 381.69481822158 47.853554466508 58.62050919967 167.08490209187 103.89429865575 42.994790201293 97.40302028377 634.4306530226 488.01242771171 243.05098737155 82.795782241618 140.75657571479 82.823111991478 299.43792165968 329.99711166877 319.61749066945 289.9201109393 421.54843630379 478.17613018358 162.96369659041 405.97810092513 197.56652843781 402.62527671916 128.2459242567 327.33503514763 448.6203145605 200.31785694894 309.43253779207 271.92565169512 303.73963617747 362.72554985137 376.86665931876 234.25844142852 316.51296990474 45.315335707252 88.74625204341 464.50073919457 55.830879103883 476.24923172189 164.38801500954 124.86112484075 122.763249629 174.36158958227 149.00222261637 91.836876675892 115.00626505732 107.88997364885 116.50314625704 512.82028910141 698.06931969287 636.31096298249 479.49024337073 76.618203092563 42.230502419865 118.37537451338 139.85101605234 236.79193819689 115.06323052243 210.46993190435 126.10428639173 213.43251813623 288.21938998645 239.72251192839 230.33101535372 232.44212702135 218.67880073486 182.87177138824 93.709654388694 289.05232773101 272.98950655526 69.103446156602 47.909918322431 42.515117377473 52.853400403086 45.459630938794 163.69892679219 114.83253556332 219.95313664118 149.24476283234 634.95404035865 551.72974686265 46.614450208357 56.311016273989 412.09129348804 155.97668688476 56.138860792514 46.953354605511 114.53024428974 187.9820959829 736.11567342709 209.10406619133 181.90804289307 99.84512138318 103.69684790097 666.63681796885 64.433946504529 229.00643868713 713.22241480492 101.20511526791 45.290153475665 389.27319747713 415.81161844645 83.72168876327 68.796487545195 62.273765507334 145.08194526865 71.948979849441 85.191557262341 35.565297620034 42.240626580668 56.581287329433 559.14040399868 70.536533540869 94.425624192646 90.638137567798 116.7875963801 92.085214012437 106.85818135464 666.43457854704 37.750024081755 127.60686068678 46.420098606929 48.155243587453 71.298734545017 84.033778577757 52.100007608603 46.384601950255 51.771472427273 54.052952939669 86.304020641071 40.592516193531 475.76053751469 79.842499886729 42.62003499394 53.611443027597 97.67895438443 73.802273794159 247.01340598047 221.38625574345 300.51597314032 314.28519217423 177.44260080322 243.81782983479 123.09100887613 159.91257027762 265.80296691689 222.04812219399 97.300777478083 137.49133406968 127.14398637302 264.27164561638 179.00150360566 39.556906029186 85.938391708124 120.52753299267 61.174045353713 72.006511419095 51.402194682437 56.956690721274 48.673352613605 78.920521375104 45.974198961889 76.04820426242 94.63573656387 630.80724643276 68.201555219236 86.992304644019 70.21487558538 735.42735494778 271.34782603671 43.709454171543 40.652540178013 43.258697626547 64.475425270197 73.108686641286 667.81333641966 45.944308444502 70.872576081026 57.920427688708 53.961894086315 62.159878575857 91.486546362594 69.984345887802 62.316268021752 61.753277321086 71.543156399308 64.425389847697 44.969072509075 73.258818195696 37.291499332344 37.533633154082 53.789861836254 59.157508333183 43.824161050781 40.436540534739 41.639357145509 46.752455402691 44.082795275501 43.921956304807 43.479655046407 59.383469994885 49.161241741917 92.956827235548 105.15569908676 40.586334956233 40.536925973878 37.895510726628 61.769599533206 38.578111941255 36.174683512586 43.590154062525 43.147489360302 39.650862043551 51.536948119318 43.167922977386 55.938297425267 42.095266832668 68.879717169897 48.205171608868 44.49568129807 38.546741831306 40.385640166199 43.239903721827 41.502630984192 43.197575926677 41.999303686151 38.147190095341 42.511175692745 43.044488622243 44.294605388511 41.373928255118 41.867771496552 41.791820403628 35.823123493838 68.035040192166 47.913729676588 48.13222433816 42.754190553187 43.776080073346 48.415387254285 40.034435777705 59.283377367551 46.382158452153 43.598369887064 47.12597141776 46.743909144082 42.422335744231 50.991904598335 47.895321120414 38.015273672255 108.61965521804 72.961512937916 59.802015610063 49.039427794423 57.32020364344 42.895072279771 121.22936769944 44.686743519522 51.97746463245 51.186763362863 49.801640374776 47.141657076044 48.555902344502 77.606623186634 83.400644419884 56.182230642862 45.206978911816 51.673127020037 54.39135602741 55.526496058126 64.346324393905 104.7704930088 68.09966050378 69.231172771764 46.959139099061 94.76122705154 55.369707316891 94.529090466662 56.68269571574 66.938780016307 49.766676561957 68.814705795571 87.549611369795 59.937857974037 77.430572849377 93.322433108945 78.464206966036 56.260140033686 57.024069812584 78.962458074576 82.194606658383 115.04055893325 66.590746118391 60.688914101233 70.29831039591 61.531221933178 78.692135332335 63.284673789129 114.45204104223 110.92743235221 63.204291534793 84.11936498994 87.059551643911 76.585962973686 123.8033737861 86.273055244305 88.248344396073 50.349119100074 83.844543600562 93.943114538338 64.225941944771 66.512884835244 67.350870016827 99.128234133062 74.004172354145 87.298643242636 65.928366520417 91.734785946701 85.010641570705 109.28923980081 105.17468341574 131.09968158829 99.706562200883 99.089925768673 90.954465564149 100.70714788207 104.32568960475 94.096786344981 112.55537190809 118.2818113557 104.45620033631 74.882548505851 133.22662868314 92.663722112658 66.873778928109 88.992729135727 101.61014372691 127.72836749983 107.79760087105 118.16705892679 138.74648584662 128.65521027527 144.80742817814 142.95274397776 128.73226082792 152.18091476187 144.04995777423 
SCALARS 50.00_0.72 double 1
LOOKUP_TABLE default