# vtk DataFile Version 3.0
d-2__ created by libgimli-v1.2.2
ASCII
DATASET UNSTRUCTURED_GRID
POINTS 570 double
14.5	0	0
14.25	0	0
14.386963504964	-0.201738469428	0
22.399299936458	-0.310870122736	0
22.129824335287	-0.229914148082	0
22.126320781198	-0.518791771445	0
8.472303742627	-0.591754876635	0
8.780507935475	-0.76092407121	0
8.82173151259	-0.349253271447	0
18.663262297679	-0.667179415955	0
18.934786529245	-0.453308328646	0
18.636898038907	-0.29588182328	0
4.016904362632	-0.85330676142	0
4.076038737616	-0.331410355179	0
3.713721571226	-0.470767763626	0
1.89953779852	-0.269343012166	0
1.633800503821	-0.203067612233	0
1.644492760828	-0.441295523531	0
4.368408037607	-0.250833874131	0
4.337474161742	-0.544420985055	0
4.67745607622	-0.378433532554	0
1.406172533733	-0.772361039307	0
1.913288206557	-1.218576310882	0
1.90687689783	-0.651895683444	0
2.5	0	0
2.25	0	0
2.347047126858	-0.185539804102	0
1.374000926997	-0.300418771701	0
1.25	0	0
1.114902662369	-0.201591505098	0
1.067401015567	-0.470108640981	0
5.75	0	0
5.699780065382	-0.324747799653	0
5.924584257371	-0.172748359932	0
0.883560935405	-0.231136840652	0
1	0	0
9	0	0
9.117836368049	-0.253904480787	0
2.625577516194	-0.346770599322	0
17.859079774019	-0.943547525024	0
17.535029634209	-1.703182852412	0
18.338018094476	-1.366069799339	0
19.932263871771	-0.826489183604	0
19.881635677668	-0.346204516721	0
19.622287080959	-0.573770479943	0
1.5	0	0
1.75	0	0
23.25	0	0
23	0	0
23.109690227386	-0.220340974338	0
2.75	0	0
2.142562771237	-0.172460438312	0
2	0	0
23.332392704446	-0.202507275941	0
23.5	0	0
19	0	0
18.75	0	0
18.888143078348	-0.195773419804	0
2.90152418742	-0.185685383897	0
7.612175045312	-0.180627982114	0
7.527150943175	-0.401430797998	0
7.881917737402	-0.30462800112	0
25.630635194756	-0.512020961038	0
25.243766894324	-0.80097755811	0
25.758031115142	-0.952821630144	0
3	0	0
28.84859809239	-0.201276387394	0
29	0	0
28.75	0	0
4	0	0
3.835807353334	-0.199536243303	0
3.106904732949	-0.178783649348	0
29.25	0	0
29.092446172194	-0.305987136665	0
13.5	0	0
13.667851890428	-0.185102765244	0
13.75	0	0
3.75	0	0
14.407363653886	-0.441423674912	0
14.125469935998	-0.279652141152	0
4.25	0	0
5.061980176718	-0.407989246181	0
5.335512032876	-0.269401530321	0
5.113979852892	-0.173834924157	0
11.882046000841	-0.812345557852	0
12.478640631525	-1.146569360669	0
12.244190771573	-0.565936619511	0
3.633270844505	-0.195395238442	0
14	0	0
18.378272976509	-0.514977451159	0
5.5	0	0
9.619519097921	-1.16461851757	0
10.030576753886	-1.587265312651	0
9.961661342999	-1.070235523667	0
5.25	0	0
5	0	0
13.157975569138	-0.830425793913	0
13.83833027638	-1.238601004239	0
13.671302359608	-0.710707966059	0
11.325917093147	-0.8366783502	0
11.612143285947	-0.506264798476	0
6	0	0
7	0	0
6.83842404292	-0.188923754932	0
7.11236984822	-0.391746146843	0
6.631875629497	-0.169178192832	0
6.75	0	0
3.21002197083	-0.595267231049	0
3.445510026908	-0.608065324465	0
3.362318141622	-0.306501255187	0
6.120159502895	-0.164221934939	0
4.538525595924	-0.906226152762	0
13.233775457127	-1.737244787017	0
4.5	0	0
16.138065841822	-0.472802517973	0
16.126746690205	-0.221608117926	0
15.859319180798	-0.326402762318	0
26.080401003391	-0.227842452866	0
26.25	0	0
26	0	0
3.019224421113	-0.401469974918	0
8.234901607028	-0.35771789179	0
8.518285578354	-0.242327591839	0
8.328777073389	-0.153008859619	0
7.25	0	0
7.400656881666	-0.195280611572	0
7.5	0	0
5.385509485898	-0.709154879541	0
5.948697127931	-0.745234910621	0
8.75	0	0
8.5	0	0
8.25	0	0
2.214249105773	-0.404278959534	0
2.896561357202	-0.792481120253	0
9.25	0	0
4.920911116561	-0.192028847294	0
9.651670336652	-0.200847798694	0
9.849824537955	-0.19917205686	0
9.75	0	0
10.095049354068	-0.315754204277	0
10	0	0
3.25	0	0
6.738406513564	-0.710129601907	0
7.121614580011	-0.943026074581	0
11.345829942703	-0.314788260019	0
11.25	0	0
11.104427225455	-0.188863495516	0
6.052412255932	-0.372556729023	0
6.373371846535	-0.274163514827	0
10.25	0	0
10.380281579003	-0.241092027437	0
10.5	0	0
10.75	0	0
10.909079077441	-0.189427130481	0
11	0	0
6.25	0	0
6.5	0	0
4.75	0	0
3.5	0	0
10.672815698565	-0.318467932684	0
10.772487906066	-0.787092734739	0
11.020900486567	-0.439266778492	0
8	0	0
7.75	0	0
11.5	0	0
11.619450354737	-0.231443672836	0
11.75	0	0
8.139317726831	-0.163309591658	0
12.25	0	0
12.158949464947	-0.235415698299	0
12.412455385193	-0.275030800337	0
12.929165084344	-0.221336108042	0
12.686337592177	-0.258437422252	0
12.900449535554	-0.462768612232	0
12.5	0	0
9.405755833308	-0.325979504745	0
9.111697192308	-0.594170467817	0
9.457257345083	-0.753685223931	0
18.101369157139	-0.618560521812	0
18.336839281097	-0.861122419318	0
10.385948631267	-0.570640149046	0
9.5	0	0
13.411260455969	-0.342646276848	0
12.643108055516	-0.590179775368	0
13.137744715761	-0.195204172124	0
13	0	0
21.25	0	0
21.358341816502	-0.326561417551	0
21.5	0	0
13.816492716597	-0.40394453634	0
20.25	0	0
20.423452336785	-0.313445603959	0
20.5	0	0
17.789350393153	-0.390447709085	0
17.987794057246	-0.401472255242	0
17.881276545163	-0.206424156589	0
19.564465692234	-0.270867872644	0
19.290725118801	-0.49926248604	0
16.392319441256	-0.29915360323	0
19.443730892406	-0.923508713428	0
20.457987075478	-0.803203365193	0
20.167450719332	-0.505159975143	0
0.103762538371	-0.253013629949	0
0.267057015134	-0.483604909932	0
0.374713194419	-0.2320817565	0
13.25	0	0
17.415572543912	-0.230682214253	0
17.5	0	0
17.25	0	0
18.108153655084	-0.208141099276	0
18.25	0	0
18	0	0
15.75	0	0
15.544586046819	-0.246453491997	0
15.122708481244	-0.193620038745	0
15.25	0	0
15	0	0
19.75	0	0
24.149237782749	-0.319013340846	0
23.842766599446	-0.577371105011	0
24.183995039967	-0.73159476451	0
13.871646321742	-0.17394291424	0
23.862588150518	-0.245417872715	0
16.84024277193	-0.203626765466	0
16.704049384397	-0.435508179396	0
17.112673188265	-0.38804641709	0
24.75	0	0
24.832880292394	-0.290571430318	0
25	0	0
16.40158555625	-0.755912194683	0
16.850299990829	-0.757941865332	0
17.75	0	0
23.567455674596	-0.325197491724	0
16.25	0	0
16	0	0
22.645812614293	-0.197864648876	0
22.75	0	0
22.5	0	0
16.75	0	0
17	0	0
24	0	0
26.914424714815	-0.337869958787	0
26.621963281699	-0.624626679172	0
26.977877660759	-0.778408201088	0
26.622424322919	-0.264588309935	0
19.34462271879	-0.199329831305	0
19.25	0	0
19.118057075065	-0.225686869553	0
19.5	0	0
26.75	0	0
27	0	0
27.5	0	0
27.604422363523	-0.298869962794	0
27.75	0	0
17.650384190064	-0.227839036584	0
18.343198956448	-0.236734208617	0
18.5	0	0
24.25	0	0
20.143897114391	-0.233773711865	0
25.5	0	0
25.25	0	0
25.344389320279	-0.31693710653	0
21.059546193318	-0.24845941382	0
20	0	0
25.842927934822	-0.248287716678	0
25.75	0	0
25.613904645132	-0.216025146631	0
21	0	0
11.763551406169	-1.481607093928	0
30.981104050195	-0.5526690913	0
30.873880294509	-0.217692518774	0
30.706626759758	-0.34945139905	0
20.75	0	0
20.85240828135	-0.178025243856	0
23.75	0	0
20.66289882074	-0.189089155251	0
30.204950808504	-0.791758966623	0
30.715535843381	-1.149995259266	0
30.543724897762	-0.572259098027	0
30	0	0
30.180216671806	-0.343473673313	0
30.25	0	0
23.229584388362	-0.458653998547	0
29.5	0	0
29.623391954444	-0.322069028408	0
29.75	0	0
21.618913855927	-0.233585823579	0
21.75	0	0
29.348490380579	-0.521100538161	0
29.36294710412	-0.230601226356	0
22	0	0
22.25	0	0
28.25	0	0
28	0	0
28.129259193923	-0.314252106503	0
28.44374413871	-0.484576386004	0
28.100199615755	-0.812038297775	0
28.649230646972	-0.871769248311	0
28.618403654115	-0.227691192115	0
28.5	0	0
28.387848605749	-0.205892081491	0
29.054768525933	-0.708603081552	0
29.344906532636	-0.846887322836	0
26.327430876245	-0.35930637997	0
10.349120516034	-1.04150119828	0
10.894920134778	-1.514321070539	0
24.59640839418	-0.191760546865	0
12.75	0	0
24.5	0	0
13.102881121377	-0.411296235356	0
25.099388239946	-0.214879887129	0
25.97986022697	-0.52841375324	0
24.398993403151	-0.196312410538	0
17.860840746535	-0.577367743328	0
17.566481510048	-0.529340016102	0
26.5	0	0
16.637148248735	-0.188015807345	0
18.183918302467	-0.396443618316	0
27.159348252167	-0.205297590358	0
27.357530053515	-0.198815038154	0
27.25	0	0
15.060354649709	-1.112587998155	0
15.51532665618	-1.043792149387	0
15.178150912169	-0.713100616689	0
10.051363365948	-0.719159376333	0
14.661248691948	-0.27865166374	0
14.75	0	0
27.868836823455	-0.217301839861	0
31	0	0
30.75	0	0
-0.020273477909	-1.415389842481	0
1.054972770973	-1.487485199502	0
0.512583677021	-1.0438154777	0
0.75	0	0
2.361419414365	-0.794513604096	0
29.890297721653	-0.2433406165	0
30.473599299501	-0.238575611274	0
30.5	0	0
30.660802173874	-0.161931182737	0
28.783812899585	-0.467926883932	0
4.937022539393	-0.72440615077	0
6.696914540879	-0.380672503721	0
7.434272221796	-0.695675918868	0
15.339606453815	-0.166204802571	0
15.281953315711	-0.388999642276	0
11.893544445085	-0.335972898148	0
12	0	0
9.753796445798	-0.478866225926	0
7.720012958977	-0.638314519759	0
21.871398197179	-0.313006985103	0
21.615176662754	-0.521922347305	0
21.856785525528	-0.665128848631	0
20.792152536902	-0.448319093295	0
21.109577821412	-0.527879642114	0
21.360297691811	-0.734200004244	0
15.547854961707	-0.580173571081	0
24.496861814148	-0.467031445896	0
25.067351422649	-0.463427753535	0
24.81263825963	-0.684738154192	0
22.865620821195	-0.218348593093	0
23.443705587002	-0.773171720633	0
27.277617447467	-0.489224417775	0
27.863714790534	-0.471681393437	0
26.239117668995	-0.863279739365	0
29.896797054636	-0.547765129844	0
29.612773839625	-0.699757135752	0
29.867172666547	-0.87444432816	0
29.610354212963	-1.521444655905	0
29.59548165142	-1.071765512911	0
29.115129171034	-1.220660174798	0
31.345359428525	-0.458952144926	0
31.144859415042	-0.241304201582	0
15.919565295974	-0.746550096707	0
16.063006820294	-1.289595303187	0
16.5	0	0
14.900855313538	-0.178071167744	0
14.161016743654	-0.72559708689	0
19.011498044983	-0.834202892304	0
16.760433281999	-1.263698818643	0
17.280361389946	-0.931704507314	0
-0.627742252535	-0.296285438777	0
-1	0	0
-1	-0.5	0
0.625738545692	-0.228405936136	0
0.5	0	0
3.313957665883	-0.865581185485	0
3.619156095452	-0.800599314657	0
[...]
CELL_DATA 986
SCALARS 100.00_0.31 double 1
LOOKUP_TABLE default
12.311498441203 10.70771493113 8.935504909381 9.1121367903061 7.9780476177525 10.889395639528 9.5590543900136 6.217312853466 12.19874316439 10.240085397107 9.5842609230448 12.50844341552 10.635645411045 12.202810806985 12.05489387054 10.740231119785 4.9542890853411 8.6741076844926 13.040769273206 13.739424561242 12.426180027763 12.294403947648 14.043222420931 11.623005299871 11.020337195498 11.97155641734 11.567989976295 6.8220362041868 12.324885675194 12.176670065556 10.86345650987 11.550426078594 12.482324339775 12.624182208012 10.570889180417 11.43679483203 11.58735594997 10.882378224209 7.2261961844375 10.735296173237 14.281150977419 9.0401420789536 11.90446369653 5.3755237512518 11.787827372393 11.55024390271 7.007368028269 8.2099138662731 12.903865359675 10.283085689014 11.457869710004 10.437447687862 7.9191298870668 11.767141993647 7.7809203478304 12.804543552007 5.3475527191024 12.184361557477 11.200321646724 10.695689632716 12.157641686091 10.50582447774 11.964161128186 13.006212731866 12.854032917667 12.491229748955 8.3505289841533 8.6002167496988 12.502533145775 10.059795491363 12.888795817452 12.434904127095 12.287230316602 12.805167975202 11.344464945325 8.5217826453183 11.237841313037 11.908989217577 11.924738209475 12.074046607578 10.749823387011 7.6842110816095 12.279056223783 10.538142271067 13.307000575931 14.332891002854 11.371859978801 12.904508820685 12.635623483862 11.376796924716 11.737815928271 12.938213828331 10.31213765043 10.950292855277 10.031891578619 13.529350672875 13.534338949221 12.899438012468 12.114440281787 12.299234709621 11.040252243195 14.046522971983 10.939349847037 11.41118941152 9.0004629520249 8.0666347582769 10.971290102949 10.786801440476 9.1034522715309 10.922291708433 10.170055905633 12.520675989625 10.578147421974 11.169243138171 10.195734468152 15.821306905011 10.785006178176 12.727261121877 9.7166415009672 11.276866444757 7.9817966620905 13.241347932426 9.3096091630494 9.539983528837 10.304264648268 12.348840792959 9.351500779716 9.737338294792 13.642644856034 12.23271951673 11.01563793262 12.859888513424 12.369656377884 11.903695930082 8.2828653351742 11.680905571585 9.8177224326893 11.795497236349 10.91248584702 8.6871155412221 11.990496630116 9.6413351822828 13.027429893084 12.265832414252 15.882119675946 13.49565539938 11.300078839212 7.7693728916329 10.34064579165 9.0821985866042 12.120090413494 12.414370372434 10.961009678327 12.38045706812 11.220439966703 12.037606876417 12.196622622881 11.207333407556 10.470974364292 10.246338233722 13.79362774269 11.587743859811 11.367083011141 13.811843303872 12.552703865409 11.767871184956 6.173685550977 10.015063307593 13.002372034192 10.874913694516 13.162440984713 12.433582848432 6.7699441259709 9.3344289763763 11.538048951315 10.496034166596 12.734515957076 12.443370873964 10.250215177508 11.413016078022 14.175189729385 13.236758191315 12.38438516716 7.3917405860677 7.2691258627875 12.898991343538 12.059077241653 12.792875729731 10.595023580731 7.8360237959853 9.0820004869035 6.1492635155725 10.850991604021 7.2889767009423 11.317986305018 11.575174375073 7.1732555081633 11.742346854424 12.087829461313 10.336930091204 11.936599135908 10.30715811887 11.626924175305 11.640204089302 11.863537119584 8.4506243809497 11.626603884853 10.839430044019 12.484008401912 12.484336238489 10.611577238075 11.510486280552 10.117431395855 10.548946935592 10.861688707988 10.881070709453 7.2350819275844 11.02660084481 6.5881656953194 10.720932618144 11.130211794019 12.939085316133 11.681841765626 14.370304420781 10.402469946802 12.027038347986 12.1196001317 10.169467141413 9.3785698111626 12.566422437549 11.041870270617 5.1474784778529 12.658973712207 12.126304643686 10.326488042172 11.522199709526 10.507495861877 7.3996157310133 11.292201325843 9.4100617296692 9.6518993707266 9.0592937268947 12.345384736408 11.497339820205 10.684458336309 11.41992349282 11.307436894553 10.742064570468 9.6797062507948 10.162573793367 9.6429153078193 10.433610551623 7.8684269092308 11.00246974956 11.36182908214 10.127519528229 13.064621798247 10.665022547969 12.383679495027 8.0403549697068 10.838365899103 10.449816057963 12.433318399179 11.22661544875 10.383279054218 12.77859987174 9.3199077410189 12.933886613788 10.287338758782 10.430737029561 10.01597171614 10.781113385939 11.192436204655 10.967328001931 11.994547470265 11.969734971878 12.074643736413 11.60107555392 11.37636134132 12.972133382349 8.6826008072926 12.731463546682 13.338872921726 12.590070000666 7.6407799582694 13.341194704744 10.939838770102 12.666018532967 12.829119694103 11.443053147695 9.7745238023697 8.9036870145981 9.0329449191229 13.327726798415 10.615146008403 11.044486451365 10.859485968113 11.621406741808 11.718262099716 12.155667044659 9.1359622882098 13.017709555919 12.649438337953 10.879555772506 10.102542203267 9.0090893458806 10.968856295323 12.308928521192 10.566966005777 11.738165180232 10.586996099189 11.898891051348 10.595669946751 10.992156030105 10.80100511753 9.1229202082789 11.957197926269 8.6354450698658 10.071815723669 11.685103937979 9.5276062307964 10.932108605881 11.091018613363 10.410605535889 9.7823253756028 9.6383472782737 13.603903378802 7.7725635399745 7.214503452785 5.1440826478481 9.6274122822758 8.3793806992213 10.419179052925 10.537853499025 9.4526973135065 10.915909069999 10.502353260745 13.364790373422 9.3952940758978 12.150567927568 6.8016353875723 8.5333847333519 13.324030922154 12.801464466859 11.967524102593 10.471577541836 11.573425148032 11.450913022386 10.840017327909 10.179386877476 10.992272093329 7.2829225243764 10.354883536476 7.1129909399414 11.328056432343 6.7013349159329 6.2881363387013 8.458020023898 9.7336203771622 10.864202785477 10.882527794126 6.5339953710161 7.906492880556 9.6615475550431 11.804961617559 8.0279861045371 6.8109099973 6.5584939820465 7.4468170243107 12.008143256075 12.803782685617 10.817256942847 8.8915923836037 7.6653066060444 9.3755467011304 11.06997558502 8.6963007341476 12.573612629523 10.723553257241 7.9006611937332 6.0489292418148 10.026737482038 10.164628023107 13.214004196197 12.332866063882 11.061132738644 10.285575947092 11.818108904002 7.5597243701419 13.505342603117 9.3896490591502 9.1597740214182 7.8497083909376 10.965049075437 9.2450047267819 12.225484737017 9.372741474055 9.2493909991532 12.320082167017 10.313818569263 12.406755281171 12.53296626387 10.735405689605 10.47426810286 7.2135090104327 12.298629749659 7.8354419126548 10.750737925552 11.227660775954 11.124840505035 12.482817537647 9.9968222847132 10.922972289013 8.9354962878831 10.543507298979 10.496749374076 8.5228892000254 8.1041370422158 6.8773075096959 9.1913838393497 6.575116775697 11.82055418323 10.121125741624 8.4535499214534 8.4609682334933 11.078093649712 8.1595817013922 7.4605923218075 9.228031579777 7.4452958502475 8.4404316774924 12.274175029282 10.571227839879 10.625777328099 11.001337720611 11.269682008811 5.7925923460651 9.4562316956065 5.4607288546307 9.3140254422545 5.9754602160168 8.8919213134141 12.612096502976 10.65924914024 6.7310001593824 10.627576545412 4.9085525733535 11.488848173042 8.2710358194263 9.2735290880813 12.679261238291 12.19266766335 11.416676145402 9.4399678062463 5.8466199815469 4.3380676951921 8.8929518467917 11.091824703374 8.5592665033216 9.9529926051509 7.9882131579474 10.471274121611 8.9343283925133 10.14508639661 9.4531856699158 5.6388810991255 6.3698281426405 9.8006377992801 6.7527775672362 5.5778347490254 7.0980262683614 10.561336361804 7.2974821326077 5.7032682572907 4.8241065000801 11.338489215572 8.8636988135271 10.292915150491 8.9044028204727 6.2477640015527 8.616127815237 6.3986918768194 6.6960672165662 11.601534349594 8.9825056012857 8.7824159027861 9.2768128037613 11.645611935111 7.7568538095022 10.493186538365 5.3278444068778 8.9628242558332 13.455739131141 12.13010792009 9.2243386147251 6.853410947632 5.1014034402859 3.8544294683117 7.9812504744565 11.14434549569 7.9308609211879 7.3814744741417 6.175855204517 7.6869935421154 8.6884131545552 11.184976864429 5.8226296243604 10.145541709383 11.238005730106 4.3427599035193 9.3198317816479 12.775130319073 11.435692764006 6.09926203094 8.6492594944306 10.157222536978 7.3604027487181 6.5418228402646 5.582916928444 10.978083588295 10.614825418797 5.7992194429144 8.6772318694463 9.9779276985546 7.001856853798 6.0743126106854 5.3098526501765 10.902066573865 9.393975195281 8.9275384625545 7.9953859822471 10.36278490849 8.7253891847237 10.261444451224 7.8502032869522 9.9317439697222 10.964490732985 10.101692259387 5.2231920174754 3.3407233422529 11.534051821276 6.031898052468 12.622383727065 9.5637901067747 5.9169341945669 9.8861571060484 3.8772962641759 7.6162051801981 3.3519390553567 4.4545819419166 9.9281448245309 5.9813054719367 11.66004984225 5.7668183256556 10.790288541703 9.6950676362547 6.7061128714413 10.172518048988 5.2618850075931 6.2979975542704 8.2225248039988 7.0009251071686 8.56091532208 6.0386233773833 7.6413882448683 9.9200222688443 5.4874271511785 4.668173658019 9.2901703109551 8.0061030620874 12.751281960713 8.3716315610065 12.03913246157 7.2762607537722 10.108238781812 10.240010254537 6.4705374456236 4.0579151769694 8.6403521851876 7.4854232500286 7.5956463946065 7.719549362598 12.207746222649 10.46725884244 5.290546715586 10.039000974434 10.921658973091 8.5889463477079 8.9412315930292 7.8925912952368 8.4784666703793 7.4576874359834 4.1111619470947 10.271838638231 4.2179647884769 8.3243020369121 9.6304921681019 10.673673251997 6.5375913282678 8.5675751190582 9.8503645711598 8.7411981030591 8.0450908142168 6.7019589437847 5.1744393564946 4.1221485317759 5.3238025910152 7.8821144581848 9.9463636903589 7.4877244491551 6.2749817250096 7.556553337454 5.8341831217316 12.625175522759 5.6692204903276 11.703051188627 10.515855918705 3.6557672474555 8.9302891106695 9.7154754269843 9.9845622044848 8.7584144931683 7.3717217074952 6.2518428378112 6.1818403176078 5.9878248761135 8.0491577164506 9.8930438144981 3.9457375898457 5.1496988439965 4.5013845627072 5.6589641939858 4.9553545360751 9.2295608830386 6.7028861488131 8.8102953687148 4.6813901601498 4.9943228895797 5.8754278956577 9.0129137481071 4.3437303774916 4.1519863725814 6.955858259938 5.7895654022064 3.5308623393478 5.9291552709408 11.689607311562 10.079674109078 7.3857040700481 4.6997961607582 5.4560683484215 4.5885658378766 8.2749390434064 7.6805347409149 8.2385709025861 7.3246176055145 9.8295247882954 9.8815126740898 5.6184465315904 9.4869162500023 6.0391822922998 9.3367979273789 5.4615403384612 8.482146040821 9.8854743893699 6.792704754206 8.4076362304378 7.8658727334266 8.3220023098646 9.0845209150346 9.3033058176901 7.3233588715135 8.511991253331 4.1341195961818 5.706971996878 9.9523433170674 4.0844828760564 11.124104804752 7.2135077792721 6.711411386261 6.5998290038654 7.805505939858 5.7734563793988 4.9625811920327 4.9959627495795 5.0108965932605 5.0654652164672 10.25436364415 13.811843068964 11.82699209264 10.792883181575 4.3019447096295 3.1365325219341 5.7161778820236 6.243622315683 6.7073213826534 5.681018922008 6.3013727821855 5.210342620871 6.6578178433177 6.9776631712958 6.7097675858456 6.4990390627839 6.8038196037471 6.7631531305891 6.1205074141047 4.7061109730682 8.113066412359 7.8957017800871 4.6408613178656 3.2701009855179 3.2574179282196 3.6690658021593 3.9649202884327 7.024772962068 6.5231209276466 8.4870118471823 6.4750004493785 13.326961137372 12.471271231243 3.9379813156634 4.3801108279695 9.6640731684768 5.7966742849007 3.8487780523603 3.8559200406136 5.3702754915209 7.5127192863007 12.230958290592 7.3919676842999 7.389580653366 5.8164033202299 5.5653065677345 12.19629204635 4.6561573838044 9.0688188595906 13.667514475188 5.9075523509457 4.1299010012372 9.6483905088197 9.3562378132969 5.3128966109121 4.6105428321743 4.5240918803662 6.8016103618913 3.4050749312792 5.3000270028881 3.5223857493744 3.4574131574692 4.0858271532472 11.108953470561 5.0262999043511 5.6192905347832 4.8679750969998 5.2836098342257 4.6215114099743 6.2214859667789 11.599185901608 3.5156124174321 6.2599611722567 3.1150032227576 3.7445990558819 5.1441141193184 4.4785795362202 3.8443921917594 3.5754745458624 4.0931301854369 4.22238190955 5.4270652603326 3.653227899413 10.416531488536 5.1852262255651 3.5757302146531 4.0911924404276 4.9259488165759 4.7967167058925 7.7595246809987 7.2546317409398 10.613906282844 8.8138378913798 6.9171086395669 8.0587150893494 5.7396517350586 6.9095743846774 9.2987114377223 8.2218413915047 5.1762571737578 6.2143974568251 5.8042759294266 9.7234125771516 7.754042050617 3.4453085460678 4.5142011607997 5.2842150240858 4.2926693963477 4.442825353643 3.9851335537679 4.1146639875017 3.686095483063 4.4873455781465 3.7383006870332 4.4753285157909 4.6312349273539 12.097835084378 4.4645488259476 5.3735040300015 5.1900656338969 12.277458641599 8.3666854311684 3.446670586922 3.4373496335275 3.476589239819 4.4161568154934 4.9601759708849 14.031448514974 3.7254838732363 4.2136670954455 4.4019921180451 3.1589869773808 3.6313447516387 5.1037988521267 4.1528170947276 4.0427639950679 4.0497960617094 4.1422151193804 4.095535120896 3.536788044269 5.0886126278287 3.4470399155303 3.6548385539313 4.3080563693257 3.3551667566187 3.356871146006 3.6816721983136 3.3343013331221 3.5657996210636 3.4373470751261 3.5231745723598 3.5177301572131 4.459146859275 4.0410536682606 5.3636080891924 5.7355361891069 3.3713811394169 3.1592560039812 3.139061723697 3.5421969995509 3.0726280332414 3.1771062535526 3.2687342278329 3.2136158429511 3.5442619075408 3.8161482152676 3.367023961593 3.5757935420651 3.3172939462613 3.4190622690995 3.8800383240634 3.8621171553792 3.2963477464625 3.3114550760795 3.4016427406631 3.2103457966913 3.2469685629429 3.323815806299 3.390249213368 3.4970132275695 3.4184446010422 3.1058527179265 3.5566933230467 3.1820969992707 3.053654004066 3.2169092515367 3.6169113407718 3.2321240436637 3.1146773348064 3.2399912425312 3.2723597387369 3.3293118021892 3.3549289406113 3.3819268824465 3.2875965572264 3.2270259692757 3.5720045243678 3.0697259162153 3.5761502617267 3.2890442989246 3.166272821984 3.25303372242 4.0439263825815 3.3352767915728 3.1551674582634 3.2586871510327 3.7236776441188 3.3607870559591 4.2234848973634 3.203556860189 3.2443067139732 3.1565765245593 3.1554416417819 3.2564409639709 3.3320368926187 3.628845775321 3.5805171652133 3.1145415378748 3.4151249421402 3.3269523454302 3.2308615713995 3.2887268218317 3.3738271564498 4.1241742371774 3.3645748394749 3.2982642448076 3.1590157146729 3.6947388641272 3.2972860543849 3.686692383562 3.3555827410748 3.5900238303291 3.0921199532642 3.4158076496878 3.6235089024282 3.1714019026596 3.4852916911033 3.7247459220163 3.4273522181879 3.4460456291449 3.4960673778601 3.7319191437845 3.6215604360743 4.0881454245235 3.508171341602 3.4006195673438 3.3213600248638 3.2011153477553 3.4182711422735 3.3390405193145 3.9991927705114 3.9295953510725 3.4567507413402 3.7530921223411 3.6939752436739 3.7362124342875 4.3459601481118 3.8627234260628 3.5641100166874 3.0600503471493 3.5364640646505 3.6537536046968 3.3067984960145 3.3984843531987 3.3690001977396 3.894163653423 3.4721673557163 3.6462310610437 3.3639956304986 3.6956466758045 3.5908518364136 3.9507049103092 3.8892277101266 4.265977389586 3.80557683275 3.7968479096788 3.6723561133791 3.8253600974063 3.8733086724437 3.7193972050846 3.9948701612898 4.0728779128801 3.9572235750819 3.5857496539991 4.4014235061638 3.7979282033875 3.2989447977858 3.6386088300696 3.8927757698345 4.1986994875347 3.9053917771814 4.0519205328426 4.3339770727772 4.291020429076 4.5117471836071 4.5095233936437 4.2753926946349 4.6344943966831 4.5291639098954 
SCALARS 200.00_0.40 double 1
LOOKUP_TABLE default