# vtk DataFile Version 3.0
d-2__ created by libgimli-v1.2.2
ASCII
DATASET UNSTRUCTURED_GRID
POINTS 570 double
14.5	0	0
14.25	0	0
14.386963504964	-0.201738469428	0
22.399299936458	-0.310870122736	0
22.129824335287	-0.229914148082	0
22.126320781198	-0.518791771445	0
8.472303742627	-0.591754876635	0
8.780507935475	-0.76092407121	0
8.82173151259	-0.349253271447	0
18.663262297679	-0.667179415955	0
18.934786529245	-0.453308328646	0
18.636898038907	-0.29588182328	0
4.016904362632	-0.85330676142	0
4.076038737616	-0.331410355179	0
3.713721571226	-0.470767763626	0
1.89953779852	-0.269343012166	0
1.633800503821	-0.203067612233	0
1.644492760828	-0.441295523531	0
4.368408037607	-0.250833874131	0
4.337474161742	-0.544420985055	0
4.67745607622	-0.378433532554	0
1.406172533733	-0.772361039307	0
1.913288206557	-1.218576310882	0
1.90687689783	-0.651895683444	0
2.5	0	0
2.25	0	0
2.347047126858	-0.185539804102	0
1.374000926997	-0.300418771701	0
1.25	0	0
1.114902662369	-0.201591505098	0
1.067401015567	-0.470108640981	0
5.75	0	0
5.699780065382	-0.324747799653	0
5.924584257371	-0.172748359932	0
0.883560935405	-0.231136840652	0
1	0	0
9	0	0
9.117836368049	-0.253904480787	0
2.625577516194	-0.346770599322	0
17.859079774019	-0.943547525024	0
17.535029634209	-1.703182852412	0
18.338018094476	-1.366069799339	0
19.932263871771	-0.826489183604	0
19.881635677668	-0.346204516721	0
19.622287080959	-0.573770479943	0
1.5	0	0
1.75	0	0
23.25	0	0
23	0	0
23.109690227386	-0.220340974338	0
2.75	0	0
2.142562771237	-0.172460438312	0
2	0	0
23.332392704446	-0.202507275941	0
23.5	0	0
19	0	0
18.75	0	0
18.888143078348	-0.195773419804	0
2.90152418742	-0.185685383897	0
7.612175045312	-0.180627982114	0
7.527150943175	-0.401430797998	0
7.881917737402	-0.30462800112	0
25.630635194756	-0.512020961038	0
25.243766894324	-0.80097755811	0
25.758031115142	-0.952821630144	0
3	0	0
28.84859809239	-0.201276387394	0
29	0	0
28.75	0	0
4	0	0
3.835807353334	-0.199536243303	0
3.106904732949	-0.178783649348	0
29.25	0	0
29.092446172194	-0.305987136665	0
13.5	0	0
13.667851890428	-0.185102765244	0
13.75	0	0
3.75	0	0
14.407363653886	-0.441423674912	0
14.125469935998	-0.279652141152	0
4.25	0	0
5.061980176718	-0.407989246181	0
5.335512032876	-0.269401530321	0
5.113979852892	-0.173834924157	0
11.882046000841	-0.812345557852	0
12.478640631525	-1.146569360669	0
12.244190771573	-0.565936619511	0
3.633270844505	-0.195395238442	0
14	0	0
18.378272976509	-0.514977451159	0
5.5	0	0
9.619519097921	-1.16461851757	0
10.030576753886	-1.587265312651	0
9.961661342999	-1.070235523667	0
5.25	0	0
5	0	0
13.157975569138	-0.830425793913	0
13.83833027638	-1.238601004239	0
13.671302359608	-0.710707966059	0
11.325917093147	-0.8366783502	0
11.612143285947	-0.506264798476	0
6	0	0
7	0	0
6.83842404292	-0.188923754932	0
7.11236984822	-0.391746146843	0
6.631875629497	-0.169178192832	0
6.75	0	0
3.21002197083	-0.595267231049	0
3.445510026908	-0.608065324465	0
3.362318141622	-0.306501255187	0
6.120159502895	-0.164221934939	0
4.538525595924	-0.906226152762	0
13.233775457127	-1.737244787017	0
4.5	0	0
16.138065841822	-0.472802517973	0
16.126746690205	-0.221608117926	0
15.859319180798	-0.326402762318	0
26.080401003391	-0.227842452866	0
26.25	0	0
26	0	0
3.019224421113	-0.401469974918	0
8.234901607028	-0.35771789179	0
8.518285578354	-0.242327591839	0
8.328777073389	-0.153008859619	0
7.25	0	0
7.400656881666	-0.195280611572	0
7.5	0	0
5.385509485898	-0.709154879541	0
5.948697127931	-0.745234910621	0
8.75	0	0
8.5	0	0
8.25	0	0
2.214249105773	-0.404278959534	0
2.896561357202	-0.792481120253	0
9.25	0	0
4.920911116561	-0.192028847294	0
9.651670336652	-0.200847798694	0
9.849824537955	-0.19917205686	0
9.75	0	0
10.095049354068	-0.315754204277	0
10	0	0
3.25	0	0
6.738406513564	-0.710129601907	0
7.121614580011	-0.943026074581	0
11.345829942703	-0.314788260019	0
11.25	0	0
11.104427225455	-0.188863495516	0
6.052412255932	-0.372556729023	0
6.373371846535	-0.274163514827	0
10.25	0	0
10.380281579003	-0.241092027437	0
10.5	0	0
10.75	0	0
10.909079077441	-0.189427130481	0
11	0	0
6.25	0	0
6.5	0	0
4.75	0	0
3.5	0	0
10.672815698565	-0.318467932684	0
10.772487906066	-0.787092734739	0
11.020900486567	-0.439266778492	0
8	0	0
7.75	0	0
11.5	0	0
11.619450354737	-0.231443672836	0
11.75	0	0
8.139317726831	-0.163309591658	0
12.25	0	0
12.158949464947	-0.235415698299	0
12.412455385193	-0.275030800337	0
12.929165084344	-0.221336108042	0
12.686337592177	-0.258437422252	0
12.900449535554	-0.462768612232	0
12.5	0	0
9.405755833308	-0.325979504745	0
9.111697192308	-0.594170467817	0
9.457257345083	-0.753685223931	0
18.101369157139	-0.618560521812	0
18.336839281097	-0.861122419318	0
10.385948631267	-0.570640149046	0
9.5	0	0
13.411260455969	-0.342646276848	0
12.643108055516	-0.590179775368	0
13.137744715761	-0.195204172124	0
13	0	0
21.25	0	0
21.358341816502	-0.326561417551	0
21.5	0	0
13.816492716597	-0.40394453634	0
20.25	0	0
20.423452336785	-0.313445603959	0
20.5	0	0
17.789350393153	-0.390447709085	0
17.987794057246	-0.401472255242	0
17.881276545163	-0.206424156589	0
19.564465692234	-0.270867872644	0
19.290725118801	-0.49926248604	0
16.392319441256	-0.29915360323	0
19.443730892406	-0.923508713428	0
20.457987075478	-0.803203365193	0
20.167450719332	-0.505159975143	0
0.103762538371	-0.253013629949	0
0.267057015134	-0.483604909932	0
0.374713194419	-0.2320817565	0
13.25	0	0
17.415572543912	-0.230682214253	0
17.5	0	0
17.25	0	0
18.108153655084	-0.208141099276	0
18.25	0	0
18	0	0
15.75	0	0
15.544586046819	-0.246453491997	0
15.122708481244	-0.193620038745	0
15.25	0	0
15	0	0
19.75	0	0
24.149237782749	-0.319013340846	0
23.842766599446	-0.577371105011	0
24.183995039967	-0.73159476451	0
13.871646321742	-0.17394291424	0
23.862588150518	-0.245417872715	0
16.84024277193	-0.203626765466	0
16.704049384397	-0.435508179396	0
17.112673188265	-0.38804641709	0
24.75	0	0
24.832880292394	-0.290571430318	0
25	0	0
16.40158555625	-0.755912194683	0
16.850299990829	-0.757941865332	0
17.75	0	0
23.567455674596	-0.325197491724	0
16.25	0	0
16	0	0
22.645812614293	-0.197864648876	0
22.75	0	0
22.5	0	0
16.75	0	0
17	0	0
24	0	0
26.914424714815	-0.337869958787	0
26.621963281699	-0.624626679172	0
26.977877660759	-0.778408201088	0
26.622424322919	-0.264588309935	0
19.34462271879	-0.199329831305	0
19.25	0	0
19.118057075065	-0.225686869553	0
19.5	0	0
26.75	0	0
27	0	0
27.5	0	0
27.604422363523	-0.298869962794	0
27.75	0	0
17.650384190064	-0.227839036584	0
18.343198956448	-0.236734208617	0
18.5	0	0
24.25	0	0
20.143897114391	-0.233773711865	0
25.5	0	0
25.25	0	0
25.344389320279	-0.31693710653	0
21.059546193318	-0.24845941382	0
20	0	0
25.842927934822	-0.248287716678	0
25.75	0	0
25.613904645132	-0.216025146631	0
21	0	0
11.763551406169	-1.481607093928	0
30.981104050195	-0.5526690913	0
30.873880294509	-0.217692518774	0
30.706626759758	-0.34945139905	0
20.75	0	0
20.85240828135	-0.178025243856	0
23.75	0	0
20.66289882074	-0.189089155251	0
30.204950808504	-0.791758966623	0
30.715535843381	-1.149995259266	0
30.543724897762	-0.572259098027	0
30	0	0
30.180216671806	-0.343473673313	0
30.25	0	0
23.229584388362	-0.458653998547	0
29.5	0	0
29.623391954444	-0.322069028408	0
29.75	0	0
21.618913855927	-0.233585823579	0
21.75	0	0
29.348490380579	-0.521100538161	0
29.36294710412	-0.230601226356	0
22	0	0
22.25	0	0
28.25	0	0
28	0	0
28.129259193923	-0.314252106503	0
28.44374413871	-0.484576386004	0
28.100199615755	-0.812038297775	0
28.649230646972	-0.871769248311	0
28.618403654115	-0.227691192115	0
28.5	0	0
28.387848605749	-0.205892081491	0
29.054768525933	-0.708603081552	0
29.344906532636	-0.846887322836	0
26.327430876245	-0.35930637997	0
10.349120516034	-1.04150119828	0
10.894920134778	-1.514321070539	0
24.59640839418	-0.191760546865	0
12.75	0	0
24.5	0	0
13.102881121377	-0.411296235356	0
25.099388239946	-0.214879887129	0
25.97986022697	-0.52841375324	0
24.398993403151	-0.196312410538	0
17.860840746535	-0.577367743328	0
17.566481510048	-0.529340016102	0
26.5	0	0
16.637148248735	-0.188015807345	0
18.183918302467	-0.396443618316	0
27.159348252167	-0.205297590358	0
27.357530053515	-0.198815038154	0
27.25	0	0
15.060354649709	-1.112587998155	0
15.51532665618	-1.043792149387	0
15.178150912169	-0.713100616689	0
10.051363365948	-0.719159376333	0
14.661248691948	-0.27865166374	0
14.75	0	0
27.868836823455	-0.217301839861	0
31	0	0
30.75	0	0
-0.020273477909	-1.415389842481	0
1.054972770973	-1.487485199502	0
0.512583677021	-1.0438154777	0
0.75	0	0
2.361419414365	-0.794513604096	0
29.890297721653	-0.2433406165	0
30.473599299501	-0.238575611274	0
30.5	0	0
30.660802173874	-0.161931182737	0
28.783812899585	-0.467926883932	0
4.937022539393	-0.72440615077	0
6.696914540879	-0.380672503721	0
7.434272221796	-0.695675918868	0
15.339606453815	-0.166204802571	0
15.281953315711	-0.388999642276	0
11.893544445085	-0.335972898148	0
12	0	0
9.753796445798	-0.478866225926	0
7.720012958977	-0.638314519759	0
21.871398197179	-0.313006985103	0
21.615176662754	-0.521922347305	0
21.856785525528	-0.665128848631	0
20.792152536902	-0.448319093295	0
21.109577821412	-0.527879642114	0
21.360297691811	-0.734200004244	0
15.547854961707	-0.580173571081	0
24.496861814148	-0.467031445896	0
25.067351422649	-0.463427753535	0
24.81263825963	-0.684738154192	0
22.865620821195	-0.218348593093	0
23.443705587002	-0.773171720633	0
27.277617447467	-0.489224417775	0
27.863714790534	-0.471681393437	0
26.239117668995	-0.863279739365	0
29.896797054636	-0.547765129844	0
29.612773839625	-0.699757135752	0
29.867172666547	-0.87444432816	0
29.610354212963	-1.521444655905	0
29.59548165142	-1.071765512911	0
29.115129171034	-1.220660174798	0
31.345359428525	-0.458952144926	0
31.144859415042	-0.241304201582	0
15.919565295974	-0.746550096707	0
16.063006820294	-1.289595303187	0
16.5	0	0
14.900855313538	-0.178071167744	0
14.161016743654	-0.72559708689	0
19.011498044983	-0.834202892304	0
16.760433281999	-1.263698818643	0
17.280361389946	-0.931704507314	0
-0.627742252535	-0.296285438777	0
-1	0	0
-1	-0.5	0
0.625738545692	-0.228405936136	0
0.5	0	0
3.313957665883	-0.865581185485	0
3.619156095452	-0.800599314657	0
[...]
CELL_DATA 986
SCALARS 100.00_0.17 double 1
LOOKUP_TABLE default
9.4443014822084 8.6179334950596 8.1929381179588 7.2787690602105 6.5599875926325 8.9797152142721 8.3316237832939 6.4258699220705 9.2093680602373 7.9686350504045 7.8292733734093 8.7497546948261 8.0196411612687 9.2845182449876 9.4688211934971 7.8170948769845 4.926409186603 8.10973796919 9.7388948094002 9.9811536687739 9.8255753301201 9.3220893222164 9.5556747106206 9.1129659347922 9.1379788351452 9.2430829832674 9.1126360194577 6.5586963711259 9.0743679742589 8.8222102986781 7.8160683867455 8.9683052058705 8.8425468822294 9.754620105384 7.180304428081 9.583846909759 9.681646964084 8.7573073415834 6.0614827737117 7.1157734945934 10.107764339937 6.9171844532916 9.340602217453 5.2116589370143 9.0716771603208 8.4917841953505 6.8335730878708 7.1056829110554 8.5817322448742 8.2498370352169 8.1519152093139 6.7445240724099 6.5177549269246 8.868239235925 7.1290317215735 8.9586158877433 5.2199789404973 10.657268542703 8.5672753640482 6.6734863489234 8.9471780445495 8.4858752551662 9.8523633014691 9.8865567442442 11.447737808301 11.021741550396 7.6822969946685 7.1248954978935 9.8011388534596 8.0778156962057 10.303891502181 9.4757596452601 9.5256249495952 10.056369781874 9.1129919147712 7.4470478028314 9.2535225597666 9.1717880354468 10.705795284821 9.7848816252778 8.9659544633482 6.4490511659787 9.4764703800823 8.353210638736 10.342643847199 10.995479531768 8.3942752608242 9.5926820325014 11.505088295489 11.065876791825 8.9566365961363 8.963792996954 8.1325967843279 9.0169030321131 8.823367903964 10.02776348522 10.19339954848 9.9017777597514 9.2567979018183 9.1562155128313 10.729258990669 9.2865219886954 7.9623163306386 11.870501997377 7.1805307813543 6.4310382139187 9.2022859368891 7.5198353123452 8.2936388478746 8.196450254427 7.6544944722221 8.8243487910141 8.4442841691601 8.252983638117 8.9821912687569 11.35319598538 8.1933081404872 9.7284968359914 8.7239665777084 8.8751159795465 7.42930625596 10.014900948231 8.4132693614562 7.41644191193 7.95786313583 9.5305408140277 7.9751244211572 7.0423344392526 9.1846611540233 8.6966943740118 7.56540026381 9.6546286469022 9.197686860981 9.6555454851075 6.9523040568297 9.309463692603 7.7072321235739 9.8253920087588 9.2022317467037 8.070779307006 9.2392271881545 7.7589618814009 8.6149480639035 8.8902035823122 10.941907486349 10.270678037194 8.2883981833505 6.5052545881787 8.2201783073351 7.2045911597329 10.060959883481 10.62221080575 7.7505919894746 9.7502145692935 8.099362525362 9.6775785148045 9.3233838847765 7.6387440846299 7.73265782659 7.688524094582 11.257624915125 8.9120361168464 8.1518192468049 11.909336423747 9.2843516977062 8.3060152204269 5.7662112448572 7.8798410661868 10.25549906926 8.6828922132909 10.517305050663 9.7703444564442 6.3199178635179 7.539727710268 8.8488222787384 8.4326476407563 9.1992532404762 8.7745096873584 7.8025235410974 8.3017369852979 9.572919373091 8.4292307990464 9.0087319543235 6.6188457082172 6.9710328398047 9.8672129265065 8.7561214013057 9.473965252523 7.9164735993493 6.645643618567 7.3288702035446 6.0235038108581 8.4835206076403 6.1328624427887 8.7597186860226 8.7735097225898 6.1388453319117 8.76903096524 8.6867902881227 8.579199197297 9.1967753568933 8.3550710239553 6.6032912265486 8.3543551091863 8.8437876829335 7.0895771838531 8.5705827784213 8.7445844405563 8.4978084056916 9.1073631664215 8.7706183224919 10.06420860392 7.9156224062778 7.3417082665128 7.8369881345283 7.9151904459258 5.726652635725 7.9416563532451 6.0520724291746 8.0623489821235 8.8330578961527 9.0147349794509 9.3199625076232 10.253323627169 8.054151307071 9.2187434529386 8.7677025698975 8.2324312492738 8.3151401970186 9.6512335986029 8.7782072421525 5.5069793881576 8.430010068526 8.4716207234756 8.1944708123034 8.9968724010176 8.7547551137203 6.9528709053561 8.2074636447582 8.3334157826012 7.6133130250256 7.3266712659387 9.5554199412186 8.7419677719674 8.3044644412731 9.5777551905914 7.1653996052181 8.4464179987647 8.3227395617886 7.8751217845769 7.1316918752162 7.7776128118669 6.8253861948137 8.4398513507877 9.1426941752596 7.0601725148744 8.8147374457421 8.887410340423 9.7824590130834 7.4034897373763 8.5704049215497 8.4648098833529 9.8145648549639 8.9680714103032 7.4538732680922 10.129293270571 7.9352766044376 9.2402866945812 6.7158679278602 7.1407311385609 8.6440530424243 9.3765666086054 8.6623189251373 8.6285233783711 8.9652358155649 9.5395283905721 7.4344277171545 8.3113801066436 9.0620637879785 8.1721428585023 7.9335547190801 9.0231871580097 10.234749961419 10.115366748162 6.8672606445528 10.384942609562 8.8774012817608 10.157819568173 11.156387788335 9.3825066951081 8.3064000791008 7.857194207214 7.5379979503707 9.5597211396038 8.3004846656403 9.3779049596644 8.1741574416658 9.0590301909814 10.437059543257 8.9929456980887 7.2192844720138 9.3675854146486 10.912527939901 9.8047866821116 6.6972856066047 7.6149063867326 8.3929287190402 9.3372063589022 8.216759826053 8.922860678556 8.618155485837 8.9203621761461 7.9522490668298 8.1484553725585 8.4089155360444 7.8144161118232 8.7972256187371 7.3468525123628 7.5364699593929 8.8143576653473 7.6772936281466 8.282603844111 7.8947816166437 7.6214174406837 7.9778268817724 7.7895626540125 9.7588475177519 6.9241780029373 6.4084675638939 5.1476999009622 7.6534448653559 6.9908893374739 8.119146321347 8.1214733791371 7.5081201782144 8.2962853858944 8.0321948494227 8.5495083265526 7.5157876931811 9.5320372102629 5.590055886074 6.0782064832829 10.758601300747 8.7907898368702 9.7366663149712 9.210891215738 9.5864589720107 10.418304027028 8.6304651950908 7.2352860593377 8.3886334079377 6.7170443794173 8.6182820452773 6.1034744956815 7.1239262156388 6.5171782377868 6.3843395417236 7.563098193698 6.4917084137487 7.8818460819069 7.4153301288139 5.7183756355211 7.4713047429398 8.3694402404249 9.3212150849178 6.9841737376866 6.2952503432376 5.8956936390186 7.3182482091544 9.5570510966859 9.4538183739696 7.4413439883984 7.1904829449781 6.4878024549105 7.6726886543124 8.5649049751501 7.4455280960679 9.528772376393 9.4324306058211 6.5783269736827 5.747140328156 7.1598330863305 8.7670447238127 8.2187092403884 10.336911836756 11.248437466534 8.0584548451355 9.6039829141857 6.9977864666628 10.539050136886 8.3598825446504 7.7354917992013 6.3434403747563 8.860086806475 7.6772686289902 9.1422353003532 7.3462880912055 8.5516266946199 7.4496673079461 8.414347134374 9.355998941719 9.3769595554794 8.5786493695433 7.7930569331028 6.4465735478446 10.165503210375 6.4121374286571 8.749707511646 9.8758011668295 7.2711285768492 10.605488787327 8.4051546064476 7.3588841526731 7.5641518477405 8.5580548537049 7.8105230593468 7.0412653354781 6.9977807035573 6.0218592905378 7.3245464546825 6.2648369384235 8.8024638814063 8.3974825158278 6.9184207819357 7.0836251031971 7.7882731864985 6.6290106828733 6.6185973920928 7.3616394724932 6.897232681321 7.1589589435066 9.4266665639544 8.7178571385811 8.0773747520306 7.6234107845416 8.3038212664604 5.6367605944299 7.5533728210534 5.2831688956941 7.3623650651531 5.6644272531763 7.3620083402017 8.4207493718337 8.102074411983 5.9533132841936 8.2596275738079 4.9323151123355 7.6906722191724 6.7819232474515 7.2290111854345 9.4812162526367 9.7341437312522 9.6194179018311 7.12661758396 5.8324399121703 4.6224432390647 7.2454230913765 9.082060238118 7.7997706182557 7.8270522155964 7.5376855907573 7.9421794614388 7.9826966708507 7.3528049151986 6.8095053571904 5.1834026718054 6.2239765020542 6.9649120271299 5.8212185397392 5.3095253728216 5.9629897810586 8.7471048166912 6.841862745536 5.2419941683942 4.6952238540307 9.4427555232042 7.705666327856 7.2708965263116 6.9304410899841 5.9043533372184 6.8450235293159 5.7717500229621 5.9389769677447 9.3927956571227 8.0519687288723 7.0341062605119 7.4973142143755 9.0538237088477 7.4111317623219 7.5167790883827 5.0781875749474 8.4419730873584 9.6946744931661 9.9616295712037 6.9164538336222 6.1145396353099 5.1049636878264 4.2156299546746 6.7887327926 8.5113870756864 6.713146406332 6.7865833580182 5.676963300968 6.6388209677442 7.6657674507031 9.6516066546488 5.706205514557 8.5404751893837 9.5168979567558 4.4615027629363 8.0842238136455 11.616823247466 8.8364609641826 5.7725796927277 7.7326869602865 7.7148661034466 6.6190346313576 6.0625453762917 5.447302861755 8.7908705980858 8.6673311301631 5.4142090068477 7.3527076430952 7.3804957846687 6.1402251842279 5.7109877863953 5.1268226411003 8.7422697614317 8.0056458357233 7.523240515713 6.7964922395298 7.5706540096351 7.113042456221 7.9354882015701 6.783984545266 7.4499091849333 8.3668890810047 8.0279101728951 5.2965406971488 3.9369825129421 7.7349721265468 6.1195277662186 7.7709504204178 8.5839153855033 5.6536847241495 8.3847541820255 4.1957123364359 6.1673771230446 3.8487697532632 4.6474514379287 7.7365556306994 5.7309001295714 6.8975418480577 5.7627359957549 7.6147575710176 7.3511829999641 6.2689227705346 7.390085324096 5.512083397674 6.1998263143681 6.4494091274481 6.0561448463338 7.6802968384957 5.9160473097199 6.9635934677266 8.7413855871054 5.5839053058816 4.9911866406363 7.1146884636395 6.7771926951018 9.8717033781102 6.1036126248816 7.7538805627959 7.0634663902655 8.9277017580361 8.7453473422521 5.867696796034 4.2684191869444 7.5528111762176 6.7934732340219 6.6976657243946 6.7502635529882 9.5814667667461 7.9316826962143 5.29698276296 7.5191543672048 8.6849630704102 7.5968873111359 7.8541350233257 7.1697212155772 7.2714122995317 6.626881654203 4.3391476456008 6.5955004295766 4.5565256557187 7.6691058870527 6.9660882545644 6.9171173409608 5.8019450171649 6.5837381414707 7.1352073839098 6.9976303305066 7.0238136492235 6.005732097421 4.9581549447573 4.1578665548655 5.1673403747178 6.8216431840551 8.9306351752391 7.0663146514408 6.3490469718279 6.6806062008266 5.5466477671272 10.054102499612 5.4852464418725 9.4107399176194 7.7429243999545 4.0163206126357 8.1356108656678 7.8040496317623 6.9550858010898 7.7438279408494 6.903327905914 5.9647072989402 5.9787317067912 5.5926568274777 6.8560072865654 6.7762197700295 4.2391875611639 5.1259552856202 4.4932003628016 5.6121514545289 4.9576233132272 8.4726975083717 5.8167709772509 7.7708868759881 4.9940553901454 5.0783023618469 5.3763282965644 7.297711822605 4.6341446001008 4.5704066811614 6.5959083597756 5.3124528693572 3.9647238164379 5.8302346250661 8.2831715806173 8.1382764090178 6.7295064689717 4.7697330792742 5.2112379701051 4.7755287344124 7.1781143340417 6.5844375295705 7.1055106252217 6.6659197321865 7.9673116068485 7.6436998417035 5.6731430071488 7.6794948122871 5.8384921065131 7.5592812824692 5.7286358187406 7.2208727957585 7.7986307354327 6.4371320160121 7.2396366826988 6.965150518417 7.1982543643219 7.5631293049151 7.7070669904231 6.7015803916983 7.3025335254551 4.408637321758 5.6752277464534 7.6281352810667 4.8056251114973 8.5627702883275 6.6948427189246 6.1967070016214 6.1948653085366 6.5839327533646 5.5444521493394 5.101053229503 5.0059561066446 5.0211718254726 5.1797138525561 9.0905263321635 8.4242348272849 8.9202741336132 8.6248554502389 4.9708729611665 3.8152225565737 5.2610126203869 5.7086323457593 6.124554925388 5.5912635632903 5.7527381942466 5.23706133864 6.0020869634722 6.3108398135741 6.0741960992839 6.0092512957375 6.0859775772107 6.4110003712418 5.7198005351746 5.2853661149292 7.0902451465984 6.9862460618907 4.7980118400296 3.6300373266645 3.45586280804 4.5126543069978 4.2355422085827 6.7117867838437 5.9795132764698 7.0141916921758 6.2996984660917 10.367633069216 10.230069352612 4.222283581014 4.6401434847224 7.2119735215043 5.5424850489623 4.0875446097233 4.1660197033691 5.301430668081 6.7413767809855 8.4779079931003 6.4854245466544 7.2131659170704 5.4373350129344 5.3932451587645 8.6788699097869 5.0161408795249 6.3760711557396 9.1158685428986 5.1668437357688 4.4550452904975 7.1242380031716 7.5094167219616 5.236631507489 4.714784114057 4.6155352182068 6.2493241388258 3.9708478345969 5.1318052315719 3.8327643941627 3.770176599638 4.253582334893 8.0056333825007 4.9800256999725 5.6497032663479 4.9039991766656 5.3631685636252 4.6458974677774 5.7360416752783 7.7837267385567 3.8819316348281 6.2187926921523 3.5633771528159 4.1581423835024 5.2870809389273 4.5457080882775 4.0793632163532 4.1584164487055 4.5457257247423 4.4006349395638 4.9338989073172 4.0506478965925 7.1641669583999 5.2077103075972 3.9250747040746 4.314428002084 4.943056893408 4.8884240241412 6.748534601812 6.8428853155764 6.6850487839082 6.8947803077097 6.2262128689475 6.5617484769652 5.9014631429176 6.0122684249105 6.5708007917815 6.3834165034436 5.3420604093009 5.8932442240308 6.0541441885063 6.5483647007716 6.0873900088094 3.6654346069528 4.8808649068632 5.6233562052617 4.7365856218023 4.5496066436025 4.1936562826016 4.3267822441053 4.0005969721634 4.70471077092 4.0067328255202 4.6096710741667 5.0983256860941 9.78401834956 4.5922203087876 5.4339669936116 5.2196728263109 8.1242943874814 7.3075905441822 3.9494056226644 3.8586093128398 3.6343211451127 4.6040636231847 5.1037024101767 10.55311514287 3.965583358109 4.3722848279808 4.605248635861 3.5053734136222 4.6262835772527 5.6404583101569 4.9246287399479 4.8827303275237 4.2688405164298 4.9143705520789 4.5208666084028 3.9836907307149 4.9174405060663 3.664122482984 3.9827054119657 4.7222814968497 4.356797889277 3.5363892762727 3.918606445353 3.6289460107889 3.8137218417305 3.7376635071607 3.6848750288857 3.748641146492 4.5092169838995 4.3520850666517 5.4412318717403 5.580049616225 3.947609305134 3.6050290027661 3.5199381945928 4.2865096119798 3.6340368537765 3.6605803912373 3.6774540610543 3.686950525392 3.7553304764363 4.135589094339 3.7946711192228 4.4365172236597 3.4778721372628 3.5138086910026 4.2518639482299 4.1355196358619 3.4859685066045 3.4726692506195 3.6757686018783 3.6897628724673 3.5763903219036 3.6623676597847 3.591924787307 3.7501883813522 3.783002050612 3.6046536246365 4.0798432172639 3.6766429260385 3.7408593337 3.5184395922271 4.2709987659439 3.4830953675849 3.5801396667507 3.5198667258971 3.4519740917928 3.4532562748187 3.5761883684355 3.5653735811134 3.7269351362876 3.7050712500883 4.4584039183759 3.5463798929986 3.9939448351868 3.4302132501747 3.5107593721702 3.8199242059322 4.0906927916354 3.5858002009003 3.536513537326 3.4447739518005 4.5943341174107 3.9224874844278 4.1037857778196 4.018987756013 3.5750109592752 3.5217211383156 3.4750583742795 3.4733009169606 4.0304424937259 3.6232640768963 3.6489265284818 3.7273449531569 4.1675326741293 3.838201689082 4.1481710237428 3.4407060921112 3.5521574246538 4.4123906222815 4.2493343672546 3.827241843377 3.6311570818381 3.9681999988269 3.4345504695504 3.7767755549736 3.6585773069704 4.217150061017 3.6459031241166 3.7432458529124 4.3063122646353 3.6838713986694 4.2923943867827 3.8284425159147 3.7873975056014 4.1734023657485 4.2947115643775 4.2008300196505 3.7239240235294 3.9831970495997 3.5486299069515 3.5075299140458 3.5472895632445 3.5852182826063 3.7232010268392 4.3118267539825 4.1086089037278 4.023745585429 3.8335837014598 4.0445575819853 3.9761529185555 4.3005977120585 4.4433820652033 4.3144339268928 3.7245277819707 3.6922905047231 3.6468259803413 3.8248069388063 4.1220849761445 3.5271838802447 3.6464214190609 3.8615434390759 3.6875894615228 3.8490317115123 3.7255459099108 4.031179030764 4.0814280699202 4.1454532190285 3.9875078456795 4.2662282065827 4.3630632003014 4.2407442305681 4.2193656619806 4.148390503076 4.3197732003724 4.3592948874598 4.3166616783029 4.2588570730063 3.850194644355 3.6448276156097 4.305166226029 3.9584731005231 3.823098038835 3.9763834259846 4.0891916311052 4.2587427477847 3.9633139357852 4.0992145880617 4.3300418309356 4.2626066401296 4.2600588933862 4.3093786123791 4.057091056021 4.3112849178625 4.2761161656931 
SCALARS 200.00_0.37 double 1
LOOKUP_TABLE default